4
Step 0
A      -4.140  -4.133  -4.140
B      -1.510  -1.532  -4.140
C      -1.510  -4.133  -1.510
D      -4.140  -1.502  -1.510